      24
 i =        1, time =        0.500, E =        -4.2686351778
  O        11.7040865484       15.8971448442       11.5451081350
  O        10.4168714219       15.9346100748       10.9958599597
 Pt         8.5559312043       11.9248638574       10.6288489996
 Pt        14.5498578679        9.2867865371       10.8759864225
 Pt         9.9855323770       14.1647011750       10.2929377656
 Pt        13.5696936858       11.7754343227       11.1663858102
 Pt         8.1585078687        9.4489982726        9.7181953137
 Pt        12.8770520235        7.6968586496        9.6882672560
 Pt        10.2685156827        7.9849839734       10.2879140065
 Pt         6.9049662258        9.0156955709        7.4603551461
 Pt         9.2438918383       10.1666360574        7.2305444680
 Pt        11.5595190636       11.2123910656        7.1443553964
 Pt        11.1145890162        6.2329636723        8.4983795909
 Pt        11.4021268264        8.7327850873        7.6922336600
 Pt        12.0294841033        9.5645560250       11.4406783289
 Pt        12.0642408377       12.6801793271        9.1593642752
 Pt         7.6294656015       13.8930766050        9.1831125439
 Pt        13.1161955119       10.2811961625        8.9517355883
 Pt        12.4300728874       14.0861777876       11.3361694277
 Pt         9.6595787053       12.6538534432        8.1050399932
 Pt         9.5144182782        9.8631161260       11.8293723644
 Pt         8.9846505256        7.5713139212        7.9548318894
 Pt        10.9599319644       11.9504989818       11.6853932267
 Pt         7.1836531846       11.4828345506        8.2940478317