      24
 i =        0, time =        0.000, E =        -4.2685795681
  O        11.7110785900       15.8991897700       11.5504667400
  O        10.4045925300       15.9359028100       10.9924323300
 Pt         8.5562469800       11.9253650800       10.6296714900
 Pt        14.5484492100        9.2878511100       10.8755787100
 Pt         9.9842224200       14.1652564200       10.2928459600
 Pt        13.5692689300       11.7759605100       11.1655068200
 Pt         8.1585319300        9.4495149700        9.7176863800
 Pt        12.8781629300        7.6977107400        9.6889193100
 Pt        10.2693702000        7.9843163100       10.2886935200
 Pt         6.9051408600        9.0142573500        7.4609313600
 Pt         9.2442270100       10.1654662500        7.2311369400
 Pt        11.5590215200       11.2126458300        7.1435658800
 Pt        11.1146095100        6.2327138200        8.4993500500
 Pt        11.4026676300        8.7329730100        7.6916847700
 Pt        12.0296100400        9.5632837300       11.4407551400
 Pt        12.0628650800       12.6797657700        9.1592556800
 Pt         7.6295574300       13.8941479800        9.1824165300
 Pt        13.1164609400       10.2809159200        8.9515729900
 Pt        12.4296902600       14.0861802600       11.3364275800
 Pt         9.6600880900       12.6532263100        8.1047964900
 Pt         9.5140251500        9.8632205300       11.8279889600
 Pt         8.9854981200        7.5713195000        7.9552490300
 Pt        10.9589050400       11.9504984200       11.6859127400
 Pt         7.1856895900       11.4830376200        8.2940446100
      24
 i =        1, time =        0.500, E =        -4.2686351778
  O        11.7040865484       15.8971448442       11.5451081350
  O        10.4168714219       15.9346100748       10.9958599597
 Pt         8.5559312043       11.9248638574       10.6288489996
 Pt        14.5498578679        9.2867865371       10.8759864225
 Pt         9.9855323770       14.1647011750       10.2929377656
 Pt        13.5696936858       11.7754343227       11.1663858102
 Pt         8.1585078687        9.4489982726        9.7181953137
 Pt        12.8770520235        7.6968586496        9.6882672560
 Pt        10.2685156827        7.9849839734       10.2879140065
 Pt         6.9049662258        9.0156955709        7.4603551461
 Pt         9.2438918383       10.1666360574        7.2305444680
 Pt        11.5595190636       11.2123910656        7.1443553964
 Pt        11.1145890162        6.2329636723        8.4983795909
 Pt        11.4021268264        8.7327850873        7.6922336600
 Pt        12.0294841033        9.5645560250       11.4406783289
 Pt        12.0642408377       12.6801793271        9.1593642752
 Pt         7.6294656015       13.8930766050        9.1831125439
 Pt        13.1161955119       10.2811961625        8.9517355883
 Pt        12.4300728874       14.0861777876       11.3361694277
 Pt         9.6595787053       12.6538534432        8.1050399932
 Pt         9.5144182782        9.8631161260       11.8293723644
 Pt         8.9846505256        7.5713139212        7.9548318894
 Pt        10.9599319644       11.9504989818       11.6853932267
 Pt         7.1836531846       11.4828345506        8.2940478317