      38
 i =        0, time =        0.000, E =        -6.7178063771
  O        13.5005876200       11.3166836400       14.4842639800
  O        14.3168284000        9.6767638100       13.9798693800
 Pt        11.8186464200       12.8986706000        9.2929706400
 Pt         9.5737196200       10.8377823800       13.5008681200
 Pt        11.6847735400        8.8710570800        4.8204860600
 Pt         8.6601300400       11.9631764300        9.6501010400
 Pt         7.2588515400       12.0655430300        7.3239554600
 Pt        14.7743773100        9.4940911500       10.0636562500
 Pt         6.9911610400       10.1094848500        9.3520575800
 Pt        14.0596516500        7.6964510500        5.4397838700
 Pt        10.0811319600        8.0167449900        6.8113586200
 Pt         7.8933179400       10.7100631800       11.6896955400
 Pt        12.0835187600       11.5545067300       13.3795735400
 Pt        13.0020210600       11.2633260800       10.8813593100
 Pt        12.5326117600        8.1430403900       10.1590823400
 Pt         7.5353316700        9.3065462100        6.8653752400
 Pt         7.9663379100       11.2663728000        4.9384320300
 Pt        12.5357862600        7.8526490400        7.5930621900
 Pt        10.2448227700        9.2897070600       10.0122523600
 Pt        10.1419208200        6.8823973600        9.0633646600
 Pt         7.7164495300        7.6716198500        8.6150596200
 Pt         8.3638527700        8.5791248500       13.3933296600
 Pt        13.0091303300       10.3313311200        6.1780251200
 Pt        16.0469169000       11.3956950600        8.9261375100
 Pt        10.6906443200       11.1320492600        5.0651228000
 Pt        11.8294254900       13.0007980400        6.4302213600
 Pt         9.6886700600       12.9113118900        7.4938288900
 Pt         8.6274520500        7.5929626700       11.1044170500
 Pt         6.2135081400        8.2327075500       10.9725181900
 Pt         8.9836523900        8.9597220600        4.7214391000
 Pt        13.9344113100       12.4304545400        7.9383879200
 Pt        12.3346366700       10.1889809200        8.6770386900
 Pt        10.9124582000        8.8752185400       12.4584152700
 Pt        13.5835484800        9.0677286800       12.3880875700
 Pt        10.8704218000        6.3479304000       11.6252253600
 Pt         9.9631136800       10.2435885000        7.7464465300
 Pt        10.3877092000       11.8431566800       11.2465129200
 Pt        14.9271059700        9.3294493000        7.5141003500
      38
 i =      100, time =       50.000, E =        -6.7257153487
  O        13.5975396584       11.2466620572       14.3568792309
  O        14.2976359417        9.6333573961       13.9733257978
 Pt        11.8920279569       12.7539216424        9.2859466715
 Pt         9.7928959461       10.7530215307       13.5593858659
 Pt        11.6680571550        8.6216353764        4.8803512108
 Pt         8.6264591967       11.9692807775        9.5564546396
 Pt         7.1121505045       11.8881165773        7.2578553033
 Pt        14.6838654676        9.6011478531        9.9705757311
 Pt         6.8945725990       10.2553200234        9.2226136503
 Pt        14.0116379219        7.9192261031        5.3752021422
 Pt        10.1264358856        7.8803316277        6.8896457559
 Pt         7.8779745578       10.6525431697       11.5925654641
 Pt        12.0243010001       11.4844278055       13.4257905269
 Pt        13.0246933801       11.4470588044       10.9930908622
 Pt        12.7008042354        8.0483020851       10.2227101250
 Pt         7.5581876867        9.2615495560        6.8575505051
 Pt         7.9552698793       11.3121130357        4.9996683661
 Pt        12.6091786725        7.8113952433        7.5459309275
 Pt        10.1490586627        9.4302778558       10.0640605262
 Pt        10.2690503449        6.8601834076        9.2702521217
 Pt         7.5953129825        7.5761202672        8.6491123466
 Pt         8.5220694313        8.5844910119       13.3120176849
 Pt        12.8110962843       10.4255110275        6.2310168265
 Pt        15.9240194084       11.4315302068        8.8004154354
 Pt        10.7203852721       11.2202391395        5.2010109913
 Pt        12.0148746409       12.8388118134        6.4643333343
 Pt         9.6630091985       12.8830332253        7.4897130441
 Pt         8.4485893108        7.4965265160       11.1260409309
 Pt         6.1007680664        8.2694928155       10.8775823739
 Pt         9.0372391315        9.0749827962        4.7649568754
 Pt        13.9090120086       12.4281187759        7.9729976354
 Pt        12.5009468065       10.3630235652        8.7469239629
 Pt        11.0078384904        8.7130412865       12.4010804186
 Pt        13.7769427182        9.1337537185       12.2591066229
 Pt        10.7331806009        6.2615394408       11.6063754901
 Pt         9.7678112637       10.4259708354        7.6536370592
 Pt        10.4540514189       12.0179596866       11.3641419973
 Pt        14.9510739865        9.2707442734        7.4526191826
      38
 i =      200, time =      100.000, E =        -6.7278030243
  O        13.5336034984       11.1276150615       14.6289035862
  O        14.4775491923        9.7616799324       13.9337865301
 Pt        11.5928716635       12.7986028841        9.1974384605
 Pt         9.8285851756       10.6660745704       13.6259474734
 Pt        11.5032721784        8.3139008910        4.9043370420
 Pt         8.6156136091       12.0863438112        9.4640756556
 Pt         6.9807775854       11.7972279807        7.2833952828
 Pt        14.6814820827        9.6988842376        9.9219500134
 Pt         6.6835014337       10.1842190064        9.1405023951
 Pt        14.0254664572        8.1872408851        5.3389935030
 Pt        10.0300144861        7.7659188425        6.9814608228
 Pt         7.9300544760       10.4702957074       11.5832916670
 Pt        12.1417487089       11.4477600257       13.4553257113
 Pt        13.1344425711       11.5617196640       11.2656919427
 Pt        12.6891600417        7.8018453695       10.2798147245
 Pt         7.6114856565        9.2911815900        6.7528864698
 Pt         7.9949101146       11.3913492487        5.0418264938
 Pt        12.6565852040        7.7843000962        7.5735442617
 Pt        10.0590863874        9.6260114474       10.1060886989
 Pt        10.4250837209        6.9694891178        9.3070658285
 Pt         7.5316498998        7.4615077750        8.7659098971
 Pt         8.6525637223        8.5969364467       13.2508929406
 Pt        12.8548548495       10.4989439078        6.2687427335
 Pt        15.9761257252       11.3709178751        8.6618823589
 Pt        10.4671819764       11.2093981552        5.2751119702
 Pt        12.1878981462       12.8988086608        6.4753356118
 Pt         9.6404020111       12.9858950669        7.3674723723
 Pt         8.3323067644        7.3248826619       11.0832835991
 Pt         6.0494117071        8.4038299556       10.7273435128
 Pt         9.2146898269        9.1136606076        4.7436365796
 Pt        14.0372665449       12.4301401719        7.9272809259
 Pt        12.4397535768       10.4047808545        8.8283021281
 Pt        11.2043604658        8.5519598263       12.3922770602
 Pt        13.8999745138        9.2140896183       12.2195550334
 Pt        10.6157746524        6.2279710538       11.6803354025
 Pt         9.7009847304       10.4665154476        7.6052567972
 Pt        10.5339888232       12.1317189655       11.4778352936
 Pt        14.9820009693        9.2296597362        7.3495751736
